+ 1.00819 /NodeList/1/DeviceList/0/$ns3::CsmaNetDevice/TxQueue/Enqueue ns3::EthernetHeader ( length/type=0x800, source=00:00:00:00:00:03, destination=ff:ff:ff:ff:ff:ff) ns3::Ipv4Header (tos 0x0 DSCP Default ECN Not-ECT ttl 64 id 0 protocol 17 offset (bytes) 0 flags [none] length: 540 10.0.1.1 > 10.0.1.255) ns3::UdpHeader (length: 520 49153 > 10) Payload (size=512) ns3::EthernetTrailer (fcs=0)
- 1.00819 /NodeList/1/DeviceList/0/$ns3::CsmaNetDevice/TxQueue/Dequeue ns3::EthernetHeader ( length/type=0x800, source=00:00:00:00:00:03, destination=ff:ff:ff:ff:ff:ff) ns3::Ipv4Header (tos 0x0 DSCP Default ECN Not-ECT ttl 64 id 0 protocol 17 offset (bytes) 0 flags [none] length: 540 10.0.1.1 > 10.0.1.255) ns3::UdpHeader (length: 520 49153 > 10) Payload (size=512) ns3::EthernetTrailer (fcs=0)
+ 1.00819 /NodeList/1/DeviceList/1/$ns3::CsmaNetDevice/TxQueue/Enqueue ns3::EthernetHeader ( length/type=0x800, source=00:00:00:00:00:0b, destination=ff:ff:ff:ff:ff:ff) ns3::Ipv4Header (tos 0x0 DSCP Default ECN Not-ECT ttl 64 id 0 protocol 17 offset (bytes) 0 flags [none] length: 540 10.0.5.1 > 10.0.5.255) ns3::UdpHeader (length: 520 49153 > 10) Payload (size=512) ns3::EthernetTrailer (fcs=0)
- 1.00819 /NodeList/1/DeviceList/1/$ns3::CsmaNetDevice/TxQueue/Dequeue ns3::EthernetHeader ( length/type=0x800, source=00:00:00:00:00:0b, destination=ff:ff:ff:ff:ff:ff) ns3::Ipv4Header (tos 0x0 DSCP Default ECN Not-ECT ttl 64 id 0 protocol 17 offset (bytes) 0 flags [none] length: 540 10.0.5.1 > 10.0.5.255) ns3::UdpHeader (length: 520 49153 > 10) Payload (size=512) ns3::EthernetTrailer (fcs=0)
r 1.01024 /NodeList/2/DeviceList/1/$ns3::CsmaNetDevice/MacRx ns3::EthernetHeader ( length/type=0x800, source=00:00:00:00:00:03, destination=ff:ff:ff:ff:ff:ff) ns3::Ipv4Header (tos 0x0 DSCP Default ECN Not-ECT ttl 64 id 0 protocol 17 offset (bytes) 0 flags [none] length: 540 10.0.1.1 > 10.0.1.255) ns3::UdpHeader (length: 520 49153 > 10) Payload (size=512) ns3::EthernetTrailer (fcs=0)
r 1.01024 /NodeList/4/DeviceList/1/$ns3::CsmaNetDevice/MacRx ns3::EthernetHeader ( length/type=0x800, source=00:00:00:00:00:0b, destination=ff:ff:ff:ff:ff:ff) ns3::Ipv4Header (tos 0x0 DSCP Default ECN Not-ECT ttl 64 id 0 protocol 17 offset (bytes) 0 flags [none] length: 540 10.0.5.1 > 10.0.5.255) ns3::UdpHeader (length: 520 49153 > 10) Payload (size=512) ns3::EthernetTrailer (fcs=0)
+ 1.01319 /NodeList/0/DeviceList/0/$ns3::CsmaNetDevice/TxQueue/Enqueue ns3::EthernetHeader ( length/type=0x800, source=00:00:00:00:00:01, destination=ff:ff:ff:ff:ff:ff) ns3::Ipv4Header (tos 0x0 DSCP Default ECN Not-ECT ttl 64 id 0 protocol 17 offset (bytes) 0 flags [none] length: 540 10.0.0.1 > 10.0.0.255) ns3::UdpHeader (length: 520 49153 > 9) Payload (size=512) ns3::EthernetTrailer (fcs=0)
- 1.01319 /NodeList/0/DeviceList/0/$ns3::CsmaNetDevice/TxQueue/Dequeue ns3::EthernetHeader ( length/type=0x800, source=00:00:00:00:00:01, destination=ff:ff:ff:ff:ff:ff) ns3::Ipv4Header (tos 0x0 DSCP Default ECN Not-ECT ttl 64 id 0 protocol 17 offset (bytes) 0 flags [none] length: 540 10.0.0.1 > 10.0.0.255) ns3::UdpHeader (length: 520 49153 > 9) Payload (size=512) ns3::EthernetTrailer (fcs=0)
+ 1.01319 /NodeList/0/DeviceList/1/$ns3::CsmaNetDevice/TxQueue/Enqueue ns3::EthernetHeader ( length/type=0x800, source=00:00:00:00:00:0d, destination=ff:ff:ff:ff:ff:ff) ns3::Ipv4Header (tos 0x0 DSCP Default ECN Not-ECT ttl 64 id 0 protocol 17 offset (bytes) 0 flags [none] length: 540 10.0.6.1 > 10.0.6.255) ns3::UdpHeader (length: 520 49153 > 9) Payload (size=512) ns3::EthernetTrailer (fcs=0)
- 1.01319 /NodeList/0/DeviceList/1/$ns3::CsmaNetDevice/TxQueue/Dequeue ns3::EthernetHeader ( length/type=0x800, source=00:00:00:00:00:0d, destination=ff:ff:ff:ff:ff:ff) ns3::Ipv4Header (tos 0x0 DSCP Default ECN Not-ECT ttl 64 id 0 protocol 17 offset (bytes) 0 flags [none] length: 540 10.0.6.1 > 10.0.6.255) ns3::UdpHeader (length: 520 49153 > 9) Payload (size=512) ns3::EthernetTrailer (fcs=0)
r 1.01524 /NodeList/2/DeviceList/0/$ns3::CsmaNetDevice/MacRx ns3::EthernetHeader ( length/type=0x800, source=00:00:00:00:00:01, destination=ff:ff:ff:ff:ff:ff) ns3::Ipv4Header (tos 0x0 DSCP Default ECN Not-ECT ttl 64 id 0 protocol 17 offset (bytes) 0 flags [none] length: 540 10.0.0.1 > 10.0.0.255) ns3::UdpHeader (length: 520 49153 > 9) Payload (size=512) ns3::EthernetTrailer (fcs=0)
r 1.01524 /NodeList/5/DeviceList/1/$ns3::CsmaNetDevice/MacRx ns3::EthernetHeader ( length/type=0x800, source=00:00:00:00:00:0d, destination=ff:ff:ff:ff:ff:ff) ns3::Ipv4Header (tos 0x0 DSCP Default ECN Not-ECT ttl 64 id 0 protocol 17 offset (bytes) 0 flags [none] length: 540 10.0.6.1 > 10.0.6.255) ns3::UdpHeader (length: 520 49153 > 9) Payload (size=512) ns3::EthernetTrailer (fcs=0)
+ 1.01638 /NodeList/1/DeviceList/0/$ns3::CsmaNetDevice/TxQueue/Enqueue ns3::EthernetHeader ( length/type=0x800, source=00:00:00:00:00:03, destination=ff:ff:ff:ff:ff:ff) ns3::Ipv4Header (tos 0x0 DSCP Default ECN Not-ECT ttl 64 id 1 protocol 17 offset (bytes) 0 flags [none] length: 540 10.0.1.1 > 10.0.1.255) ns3::UdpHeader (length: 520 49153 > 10) Payload (size=512) ns3::EthernetTrailer (fcs=0)
- 1.01638 /NodeList/1/DeviceList/0/$ns3::CsmaNetDevice/TxQueue/Dequeue ns3::EthernetHeader ( length/type=0x800, source=00:00:00:00:00:03, destination=ff:ff:ff:ff:ff:ff) ns3::Ipv4Header (tos 0x0 DSCP Default ECN Not-ECT ttl 64 id 1 protocol 17 offset (bytes) 0 flags [none] length: 540 10.0.1.1 > 10.0.1.255) ns3::UdpHeader (length: 520 49153 > 10) Payload (size=512) ns3::EthernetTrailer (fcs=0)
+ 1.01638 /NodeList/1/DeviceList/1/$ns3::CsmaNetDevice/TxQueue/Enqueue ns3::EthernetHeader ( length/type=0x800, source=00:00:00:00:00:0b, destination=ff:ff:ff:ff:ff:ff) ns3::Ipv4Header (tos 0x0 DSCP Default ECN Not-ECT ttl 64 id 1 protocol 17 offset (bytes) 0 flags [none] length: 540 10.0.5.1 > 10.0.5.255) ns3::UdpHeader (length: 520 49153 > 10) Payload (size=512) ns3::EthernetTrailer (fcs=0)
- 1.01638 /NodeList/1/DeviceList/1/$ns3::CsmaNetDevice/TxQueue/Dequeue ns3::EthernetHeader ( length/type=0x800, source=00:00:00:00:00:0b, destination=ff:ff:ff:ff:ff:ff) ns3::Ipv4Header (tos 0x0 DSCP Default ECN Not-ECT ttl 64 id 1 protocol 17 offset (bytes) 0 flags [none] length: 540 10.0.5.1 > 10.0.5.255) ns3::UdpHeader (length: 520 49153 > 10) Payload (size=512) ns3::EthernetTrailer (fcs=0)
r 1.01843 /NodeList/2/DeviceList/1/$ns3::CsmaNetDevice/MacRx ns3::EthernetHeader ( length/type=0x800, source=00:00:00:00:00:03, destination=ff:ff:ff:ff:ff:ff) ns3::Ipv4Header (tos 0x0 DSCP Default ECN Not-ECT ttl 64 id 1 protocol 17 offset (bytes) 0 flags [none] length: 540 10.0.1.1 > 10.0.1.255) ns3::UdpHeader (length: 520 49153 > 10) Payload (size=512) ns3::EthernetTrailer (fcs=0)
r 1.01843 /NodeList/4/DeviceList/1/$ns3::CsmaNetDevice/MacRx ns3::EthernetHeader ( length/type=0x800, source=00:00:00:00:00:0b, destination=ff:ff:ff:ff:ff:ff) ns3::Ipv4Header (tos 0x0 DSCP Default ECN Not-ECT ttl 64 id 1 protocol 17 offset (bytes) 0 flags [none] length: 540 10.0.5.1 > 10.0.5.255) ns3::UdpHeader (length: 520 49153 > 10) Payload (size=512) ns3::EthernetTrailer (fcs=0)
+ 1.02138 /NodeList/0/DeviceList/0/$ns3::CsmaNetDevice/TxQueue/Enqueue ns3::EthernetHeader ( length/type=0x800, source=00:00:00:00:00:01, destination=ff:ff:ff:ff:ff:ff) ns3::Ipv4Header (tos 0x0 DSCP Default ECN Not-ECT ttl 64 id 1 protocol 17 offset (bytes) 0 flags [none] length: 540 10.0.0.1 > 10.0.0.255) ns3::UdpHeader (length: 520 49153 > 9) Payload (size=512) ns3::EthernetTrailer (fcs=0)
- 1.02138 /NodeList/0/DeviceList/0/$ns3::CsmaNetDevice/TxQueue/Dequeue ns3::EthernetHeader ( length/type=0x800, source=00:00:00:00:00:01, destination=ff:ff:ff:ff:ff:ff) ns3::Ipv4Header (tos 0x0 DSCP Default ECN Not-ECT ttl 64 id 1 protocol 17 offset (bytes) 0 flags [none] length: 540 10.0.0.1 > 10.0.0.255) ns3::UdpHeader (length: 520 49153 > 9) Payload (size=512) ns3::EthernetTrailer (fcs=0)
+ 1.02138 /NodeList/0/DeviceList/1/$ns3::CsmaNetDevice/TxQueue/Enqueue ns3::EthernetHeader ( length/type=0x800, source=00:00:00:00:00:0d, destination=ff:ff:ff:ff:ff:ff) ns3::Ipv4Header (tos 0x0 DSCP Default ECN Not-ECT ttl 64 id 1 protocol 17 offset (bytes) 0 flags [none] length: 540 10.0.6.1 > 10.0.6.255) ns3::UdpHeader (length: 520 49153 > 9) Payload (size=512) ns3::EthernetTrailer (fcs=0)
- 1.02138 /NodeList/0/DeviceList/1/$ns3::CsmaNetDevice/TxQueue/Dequeue ns3::EthernetHeader ( length/type=0x800, source=00:00:00:00:00:0d, destination=ff:ff:ff:ff:ff:ff) ns3::Ipv4Header (tos 0x0 DSCP Default ECN Not-ECT ttl 64 id 1 protocol 17 offset (bytes) 0 flags [none] length: 540 10.0.6.1 > 10.0.6.255) ns3::UdpHeader (length: 520 49153 > 9) Payload (size=512) ns3::EthernetTrailer (fcs=0)
r 1.02343 /NodeList/2/DeviceList/0/$ns3::CsmaNetDevice/MacRx ns3::EthernetHeader ( length/type=0x800, source=00:00:00:00:00:01, destination=ff:ff:ff:ff:ff:ff) ns3::Ipv4Header (tos 0x0 DSCP Default ECN Not-ECT ttl 64 id 1 protocol 17 offset (bytes) 0 flags [none] length: 540 10.0.0.1 > 10.0.0.255) ns3::UdpHeader (length: 520 49153 > 9) Payload (size=512) ns3::EthernetTrailer (fcs=0)
r 1.02343 /NodeList/5/DeviceList/1/$ns3::CsmaNetDevice/MacRx ns3::EthernetHeader ( length/type=0x800, source=00:00:00:00:00:0d, destination=ff:ff:ff:ff:ff:ff) ns3::Ipv4Header (tos 0x0 DSCP Default ECN Not-ECT ttl 64 id 1 protocol 17 offset (bytes) 0 flags [none] length: 540 10.0.6.1 > 10.0.6.255) ns3::UdpHeader (length: 520 49153 > 9) Payload (size=512) ns3::EthernetTrailer (fcs=0)
+ 1.02458 /NodeList/1/DeviceList/0/$ns3::CsmaNetDevice/TxQueue/Enqueue ns3::EthernetHeader ( length/type=0x800, source=00:00:00:00:00:03, destination=ff:ff:ff:ff:ff:ff) ns3::Ipv4Header (tos 0x0 DSCP Default ECN Not-ECT ttl 64 id 2 protocol 17 offset (bytes) 0 flags [none] length: 540 10.0.1.1 > 10.0.1.255) ns3::UdpHeader (length: 520 49153 > 10) Payload (size=512) ns3::EthernetTrailer (fcs=0)
- 1.02458 /NodeList/1/DeviceList/0/$ns3::CsmaNetDevice/TxQueue/Dequeue ns3::EthernetHeader ( length/type=0x800, source=00:00:00:00:00:03, destination=ff:ff:ff:ff:ff:ff) ns3::Ipv4Header (tos 0x0 DSCP Default ECN Not-ECT ttl 64 id 2 protocol 17 offset (bytes) 0 flags [none] length: 540 10.0.1.1 > 10.0.1.255) ns3::UdpHeader (length: 520 49153 > 10) Payload (size=512) ns3::EthernetTrailer (fcs=0)
+ 1.02458 /NodeList/1/DeviceList/1/$ns3::CsmaNetDevice/TxQueue/Enqueue ns3::EthernetHeader ( length/type=0x800, source=00:00:00:00:00:0b, destination=ff:ff:ff:ff:ff:ff) ns3::Ipv4Header (tos 0x0 DSCP Default ECN Not-ECT ttl 64 id 2 protocol 17 offset (bytes) 0 flags [none] length: 540 10.0.5.1 > 10.0.5.255) ns3::UdpHeader (length: 520 49153 > 10) Payload (size=512) ns3::EthernetTrailer (fcs=0)
- 1.02458 /NodeList/1/DeviceList/1/$ns3::CsmaNetDevice/TxQueue/Dequeue ns3::EthernetHeader ( length/type=0x800, source=00:00:00:00:00:0b, destination=ff:ff:ff:ff:ff:ff) ns3::Ipv4Header (tos 0x0 DSCP Default ECN Not-ECT ttl 64 id 2 protocol 17 offset (bytes) 0 flags [none] length: 540 10.0.5.1 > 10.0.5.255) ns3::UdpHeader (length: 520 49153 > 10) Payload (size=512) ns3::EthernetTrailer (fcs=0)
r 1.02662 /NodeList/2/DeviceList/1/$ns3::CsmaNetDevice/MacRx ns3::EthernetHeader ( length/type=0x800, source=00:00:00:00:00:03, destination=ff:ff:ff:ff:ff:ff) ns3::Ipv4Header (tos 0x0 DSCP Default ECN Not-ECT ttl 64 id 2 protocol 17 offset (bytes) 0 flags [none] length: 540 10.0.1.1 > 10.0.1.255) ns3::UdpHeader (length: 520 49153 > 10) Payload (size=512) ns3::EthernetTrailer (fcs=0)
r 1.02662 /NodeList/4/DeviceList/1/$ns3::CsmaNetDevice/MacRx ns3::EthernetHeader ( length/type=0x800, source=00:00:00:00:00:0b, destination=ff:ff:ff:ff:ff:ff) ns3::Ipv4Header (tos 0x0 DSCP Default ECN Not-ECT ttl 64 id 2 protocol 17 offset (bytes) 0 flags [none] length: 540 10.0.5.1 > 10.0.5.255) ns3::UdpHeader (length: 520 49153 > 10) Payload (size=512) ns3::EthernetTrailer (fcs=0)
+ 1.02958 /NodeList/0/DeviceList/0/$ns3::CsmaNetDevice/TxQueue/Enqueue ns3::EthernetHeader ( length/type=0x800, source=00:00:00:00:00:01, destination=ff:ff:ff:ff:ff:ff) ns3::Ipv4Header (tos 0x0 DSCP Default ECN Not-ECT ttl 64 id 2 protocol 17 offset (bytes) 0 flags [none] length: 540 10.0.0.1 > 10.0.0.255) ns3::UdpHeader (length: 520 49153 > 9) Payload (size=512) ns3::EthernetTrailer (fcs=0)
- 1.02958 /NodeList/0/DeviceList/0/$ns3::CsmaNetDevice/TxQueue/Dequeue ns3::EthernetHeader ( length/type=0x800, source=00:00:00:00:00:01, destination=ff:ff:ff:ff:ff:ff) ns3::Ipv4Header (tos 0x0 DSCP Default ECN Not-ECT ttl 64 id 2 protocol 17 offset (bytes) 0 flags [none] length: 540 10.0.0.1 > 10.0.0.255) ns3::UdpHeader (length: 520 49153 > 9) Payload (size=512) ns3::EthernetTrailer (fcs=0)
+ 1.02958 /NodeList/0/DeviceList/1/$ns3::CsmaNetDevice/TxQueue/Enqueue ns3::EthernetHeader ( length/type=0x800, source=00:00:00:00:00:0d, destination=ff:ff:ff:ff:ff:ff) ns3::Ipv4Header (tos 0x0 DSCP Default ECN Not-ECT ttl 64 id 2 protocol 17 offset (bytes) 0 flags [none] length: 540 10.0.6.1 > 10.0.6.255) ns3::UdpHeader (length: 520 49153 > 9) Payload (size=512) ns3::EthernetTrailer (fcs=0)
- 1.02958 /NodeList/0/DeviceList/1/$ns3::CsmaNetDevice/TxQueue/Dequeue ns3::EthernetHeader ( length/type=0x800, source=00:00:00:00:00:0d, destination=ff:ff:ff:ff:ff:ff) ns3::Ipv4Header (tos 0x0 DSCP Default ECN Not-ECT ttl 64 id 2 protocol 17 offset (bytes) 0 flags [none] length: 540 10.0.6.1 > 10.0.6.255) ns3::UdpHeader (length: 520 49153 > 9) Payload (size=512) ns3::EthernetTrailer (fcs=0)
r 1.03162 /NodeList/2/DeviceList/0/$ns3::CsmaNetDevice/MacRx ns3::EthernetHeader ( length/type=0x800, source=00:00:00:00:00:01, destination=ff:ff:ff:ff:ff:ff) ns3::Ipv4Header (tos 0x0 DSCP Default ECN Not-ECT ttl 64 id 2 protocol 17 offset (bytes) 0 flags [none] length: 540 10.0.0.1 > 10.0.0.255) ns3::UdpHeader (length: 520 49153 > 9) Payload (size=512) ns3::EthernetTrailer (fcs=0)
r 1.03162 /NodeList/5/DeviceList/1/$ns3::CsmaNetDevice/MacRx ns3::EthernetHeader ( length/type=0x800, source=00:00:00:00:00:0d, destination=ff:ff:ff:ff:ff:ff) ns3::Ipv4Header (tos 0x0 DSCP Default ECN Not-ECT ttl 64 id 2 protocol 17 offset (bytes) 0 flags [none] length: 540 10.0.6.1 > 10.0.6.255) ns3::UdpHeader (length: 520 49153 > 9) Payload (size=512) ns3::EthernetTrailer (fcs=0)
+ 1.03277 /NodeList/1/DeviceList/0/$ns3::CsmaNetDevice/TxQueue/Enqueue ns3::EthernetHeader ( length/type=0x800, source=00:00:00:00:00:03, destination=ff:ff:ff:ff:ff:ff) ns3::Ipv4Header (tos 0x0 DSCP Default ECN Not-ECT ttl 64 id 3 protocol 17 offset (bytes) 0 flags [none] length: 540 10.0.1.1 > 10.0.1.255) ns3::UdpHeader (length: 520 49153 > 10) Payload (size=512) ns3::EthernetTrailer (fcs=0)
- 1.03277 /NodeList/1/DeviceList/0/$ns3::CsmaNetDevice/TxQueue/Dequeue ns3::EthernetHeader ( length/type=0x800, source=00:00:00:00:00:03, destination=ff:ff:ff:ff:ff:ff) ns3::Ipv4Header (tos 0x0 DSCP Default ECN Not-ECT ttl 64 id 3 protocol 17 offset (bytes) 0 flags [none] length: 540 10.0.1.1 > 10.0.1.255) ns3::UdpHeader (length: 520 49153 > 10) Payload (size=512) ns3::EthernetTrailer (fcs=0)
+ 1.03277 /NodeList/1/DeviceList/1/$ns3::CsmaNetDevice/TxQueue/Enqueue ns3::EthernetHeader ( length/type=0x800, source=00:00:00:00:00:0b, destination=ff:ff:ff:ff:ff:ff) ns3::Ipv4Header (tos 0x0 DSCP Default ECN Not-ECT ttl 64 id 3 protocol 17 offset (bytes) 0 flags [none] length: 540 10.0.5.1 > 10.0.5.255) ns3::UdpHeader (length: 520 49153 > 10) Payload (size=512) ns3::EthernetTrailer (fcs=0)
- 1.03277 /NodeList/1/DeviceList/1/$ns3::CsmaNetDevice/TxQueue/Dequeue ns3::EthernetHeader ( length/type=0x800, source=00:00:00:00:00:0b, destination=ff:ff:ff:ff:ff:ff) ns3::Ipv4Header (tos 0x0 DSCP Default ECN Not-ECT ttl 64 id 3 protocol 17 offset (bytes) 0 flags [none] length: 540 10.0.5.1 > 10.0.5.255) ns3::UdpHeader (length: 520 49153 > 10) Payload (size=512) ns3::EthernetTrailer (fcs=0)
r 1.03481 /NodeList/2/DeviceList/1/$ns3::CsmaNetDevice/MacRx ns3::EthernetHeader ( length/type=0x800, source=00:00:00:00:00:03, destination=ff:ff:ff:ff:ff:ff) ns3::Ipv4Header (tos 0x0 DSCP Default ECN Not-ECT ttl 64 id 3 protocol 17 offset (bytes) 0 flags [none] length: 540 10.0.1.1 > 10.0.1.255) ns3::UdpHeader (length: 520 49153 > 10) Payload (size=512) ns3::EthernetTrailer (fcs=0)
r 1.03481 /NodeList/4/DeviceList/1/$ns3::CsmaNetDevice/MacRx ns3::EthernetHeader ( length/type=0x800, source=00:00:00:00:00:0b, destination=ff:ff:ff:ff:ff:ff) ns3::Ipv4Header (tos 0x0 DSCP Default ECN Not-ECT ttl 64 id 3 protocol 17 offset (bytes) 0 flags [none] length: 540 10.0.5.1 > 10.0.5.255) ns3::UdpHeader (length: 520 49153 > 10) Payload (size=512) ns3::EthernetTrailer (fcs=0)
+ 1.03777 /NodeList/0/DeviceList/0/$ns3::CsmaNetDevice/TxQueue/Enqueue ns3::EthernetHeader ( length/type=0x800, source=00:00:00:00:00:01, destination=ff:ff:ff:ff:ff:ff) ns3::Ipv4Header (tos 0x0 DSCP Default ECN Not-ECT ttl 64 id 3 protocol 17 offset (bytes) 0 flags [none] length: 540 10.0.0.1 > 10.0.0.255) ns3::UdpHeader (length: 520 49153 > 9) Payload (size=512) ns3::EthernetTrailer (fcs=0)
- 1.03777 /NodeList/0/DeviceList/0/$ns3::CsmaNetDevice/TxQueue/Dequeue ns3::EthernetHeader ( length/type=0x800, source=00:00:00:00:00:01, destination=ff:ff:ff:ff:ff:ff) ns3::Ipv4Header (tos 0x0 DSCP Default ECN Not-ECT ttl 64 id 3 protocol 17 offset (bytes) 0 flags [none] length: 540 10.0.0.1 > 10.0.0.255) ns3::UdpHeader (length: 520 49153 > 9) Payload (size=512) ns3::EthernetTrailer (fcs=0)
+ 1.03777 /NodeList/0/DeviceList/1/$ns3::CsmaNetDevice/TxQueue/Enqueue ns3::EthernetHeader ( length/type=0x800, source=00:00:00:00:00:0d, destination=ff:ff:ff:ff:ff:ff) ns3::Ipv4Header (tos 0x0 DSCP Default ECN Not-ECT ttl 64 id 3 protocol 17 offset (bytes) 0 flags [none] length: 540 10.0.6.1 > 10.0.6.255) ns3::UdpHeader (length: 520 49153 > 9) Payload (size=512) ns3::EthernetTrailer (fcs=0)
- 1.03777 /NodeList/0/DeviceList/1/$ns3::CsmaNetDevice/TxQueue/Dequeue ns3::EthernetHeader ( length/type=0x800, source=00:00:00:00:00:0d, destination=ff:ff:ff:ff:ff:ff) ns3::Ipv4Header (tos 0x0 DSCP Default ECN Not-ECT ttl 64 id 3 protocol 17 offset (bytes) 0 flags [none] length: 540 10.0.6.1 > 10.0.6.255) ns3::UdpHeader (length: 520 49153 > 9) Payload (size=512) ns3::EthernetTrailer (fcs=0)
r 1.03981 /NodeList/2/DeviceList/0/$ns3::CsmaNetDevice/MacRx ns3::EthernetHeader ( length/type=0x800, source=00:00:00:00:00:01, destination=ff:ff:ff:ff:ff:ff) ns3::Ipv4Header (tos 0x0 DSCP Default ECN Not-ECT ttl 64 id 3 protocol 17 offset (bytes) 0 flags [none] length: 540 10.0.0.1 > 10.0.0.255) ns3::UdpHeader (length: 520 49153 > 9) Payload (size=512) ns3::EthernetTrailer (fcs=0)
r 1.03981 /NodeList/5/DeviceList/1/$ns3::CsmaNetDevice/MacRx ns3::EthernetHeader ( length/type=0x800, source=00:00:00:00:00:0d, destination=ff:ff:ff:ff:ff:ff) ns3::Ipv4Header (tos 0x0 DSCP Default ECN Not-ECT ttl 64 id 3 protocol 17 offset (bytes) 0 flags [none] length: 540 10.0.6.1 > 10.0.6.255) ns3::UdpHeader (length: 520 49153 > 9) Payload (size=512) ns3::EthernetTrailer (fcs=0)
+ 1.04096 /NodeList/1/DeviceList/0/$ns3::CsmaNetDevice/TxQueue/Enqueue ns3::EthernetHeader ( length/type=0x800, source=00:00:00:00:00:03, destination=ff:ff:ff:ff:ff:ff) ns3::Ipv4Header (tos 0x0 DSCP Default ECN Not-ECT ttl 64 id 4 protocol 17 offset (bytes) 0 flags [none] length: 540 10.0.1.1 > 10.0.1.255) ns3::UdpHeader (length: 520 49153 > 10) Payload (size=512) ns3::EthernetTrailer (fcs=0)
- 1.04096 /NodeList/1/DeviceList/0/$ns3::CsmaNetDevice/TxQueue/Dequeue ns3::EthernetHeader ( length/type=0x800, source=00:00:00:00:00:03, destination=ff:ff:ff:ff:ff:ff) ns3::Ipv4Header (tos 0x0 DSCP Default ECN Not-ECT ttl 64 id 4 protocol 17 offset (bytes) 0 flags [none] length: 540 10.0.1.1 > 10.0.1.255) ns3::UdpHeader (length: 520 49153 > 10) Payload (size=512) ns3::EthernetTrailer (fcs=0)
+ 1.04096 /NodeList/1/DeviceList/1/$ns3::CsmaNetDevice/TxQueue/Enqueue ns3::EthernetHeader ( length/type=0x800, source=00:00:00:00:00:0b, destination=ff:ff:ff:ff:ff:ff) ns3::Ipv4Header (tos 0x0 DSCP Default ECN Not-ECT ttl 64 id 4 protocol 17 offset (bytes) 0 flags [none] length: 540 10.0.5.1 > 10.0.5.255) ns3::UdpHeader (length: 520 49153 > 10) Payload (size=512) ns3::EthernetTrailer (fcs=0)
- 1.04096 /NodeList/1/DeviceList/1/$ns3::CsmaNetDevice/TxQueue/Dequeue ns3::EthernetHeader ( length/type=0x800, source=00:00:00:00:00:0b, destination=ff:ff:ff:ff:ff:ff) ns3::Ipv4Header (tos 0x0 DSCP Default ECN Not-ECT ttl 64 id 4 protocol 17 offset (bytes) 0 flags [none] length: 540 10.0.5.1 > 10.0.5.255) ns3::UdpHeader (length: 520 49153 > 10) Payload (size=512) ns3::EthernetTrailer (fcs=0)
r 1.043 /NodeList/2/DeviceList/1/$ns3::CsmaNetDevice/MacRx ns3::EthernetHeader ( length/type=0x800, source=00:00:00:00:00:03, destination=ff:ff:ff:ff:ff:ff) ns3::Ipv4Header (tos 0x0 DSCP Default ECN Not-ECT ttl 64 id 4 protocol 17 offset (bytes) 0 flags [none] length: 540 10.0.1.1 > 10.0.1.255) ns3::UdpHeader (length: 520 49153 > 10) Payload (size=512) ns3::EthernetTrailer (fcs=0)
r 1.043 /NodeList/4/DeviceList/1/$ns3::CsmaNetDevice/MacRx ns3::EthernetHeader ( length/type=0x800, source=00:00:00:00:00:0b, destination=ff:ff:ff:ff:ff:ff) ns3::Ipv4Header (tos 0x0 DSCP Default ECN Not-ECT ttl 64 id 4 protocol 17 offset (bytes) 0 flags [none] length: 540 10.0.5.1 > 10.0.5.255) ns3::UdpHeader (length: 520 49153 > 10) Payload (size=512) ns3::EthernetTrailer (fcs=0)
+ 1.04596 /NodeList/0/DeviceList/0/$ns3::CsmaNetDevice/TxQueue/Enqueue ns3::EthernetHeader ( length/type=0x800, source=00:00:00:00:00:01, destination=ff:ff:ff:ff:ff:ff) ns3::Ipv4Header (tos 0x0 DSCP Default ECN Not-ECT ttl 64 id 4 protocol 17 offset (bytes) 0 flags [none] length: 540 10.0.0.1 > 10.0.0.255) ns3::UdpHeader (length: 520 49153 > 9) Payload (size=512) ns3::EthernetTrailer (fcs=0)
- 1.04596 /NodeList/0/DeviceList/0/$ns3::CsmaNetDevice/TxQueue/Dequeue ns3::EthernetHeader ( length/type=0x800, source=00:00:00:00:00:01, destination=ff:ff:ff:ff:ff:ff) ns3::Ipv4Header (tos 0x0 DSCP Default ECN Not-ECT ttl 64 id 4 protocol 17 offset (bytes) 0 flags [none] length: 540 10.0.0.1 > 10.0.0.255) ns3::UdpHeader (length: 520 49153 > 9) Payload (size=512) ns3::EthernetTrailer (fcs=0)
+ 1.04596 /NodeList/0/DeviceList/1/$ns3::CsmaNetDevice/TxQueue/Enqueue ns3::EthernetHeader ( length/type=0x800, source=00:00:00:00:00:0d, destination=ff:ff:ff:ff:ff:ff) ns3::Ipv4Header (tos 0x0 DSCP Default ECN Not-ECT ttl 64 id 4 protocol 17 offset (bytes) 0 flags [none] length: 540 10.0.6.1 > 10.0.6.255) ns3::UdpHeader (length: 520 49153 > 9) Payload (size=512) ns3::EthernetTrailer (fcs=0)
- 1.04596 /NodeList/0/DeviceList/1/$ns3::CsmaNetDevice/TxQueue/Dequeue ns3::EthernetHeader ( length/type=0x800, source=00:00:00:00:00:0d, destination=ff:ff:ff:ff:ff:ff) ns3::Ipv4Header (tos 0x0 DSCP Default ECN Not-ECT ttl 64 id 4 protocol 17 offset (bytes) 0 flags [none] length: 540 10.0.6.1 > 10.0.6.255) ns3::UdpHeader (length: 520 49153 > 9) Payload (size=512) ns3::EthernetTrailer (fcs=0)
r 1.048 /NodeList/2/DeviceList/0/$ns3::CsmaNetDevice/MacRx ns3::EthernetHeader ( length/type=0x800, source=00:00:00:00:00:01, destination=ff:ff:ff:ff:ff:ff) ns3::Ipv4Header (tos 0x0 DSCP Default ECN Not-ECT ttl 64 id 4 protocol 17 offset (bytes) 0 flags [none] length: 540 10.0.0.1 > 10.0.0.255) ns3::UdpHeader (length: 520 49153 > 9) Payload (size=512) ns3::EthernetTrailer (fcs=0)
r 1.048 /NodeList/5/DeviceList/1/$ns3::CsmaNetDevice/MacRx ns3::EthernetHeader ( length/type=0x800, source=00:00:00:00:00:0d, destination=ff:ff:ff:ff:ff:ff) ns3::Ipv4Header (tos 0x0 DSCP Default ECN Not-ECT ttl 64 id 4 protocol 17 offset (bytes) 0 flags [none] length: 540 10.0.6.1 > 10.0.6.255) ns3::UdpHeader (length: 520 49153 > 9) Payload (size=512) ns3::EthernetTrailer (fcs=0)
+ 1.04915 /NodeList/1/DeviceList/0/$ns3::CsmaNetDevice/TxQueue/Enqueue ns3::EthernetHeader ( length/type=0x800, source=00:00:00:00:00:03, destination=ff:ff:ff:ff:ff:ff) ns3::Ipv4Header (tos 0x0 DSCP Default ECN Not-ECT ttl 64 id 5 protocol 17 offset (bytes) 0 flags [none] length: 540 10.0.1.1 > 10.0.1.255) ns3::UdpHeader (length: 520 49153 > 10) Payload (size=512) ns3::EthernetTrailer (fcs=0)
- 1.04915 /NodeList/1/DeviceList/0/$ns3::CsmaNetDevice/TxQueue/Dequeue ns3::EthernetHeader ( length/type=0x800, source=00:00:00:00:00:03, destination=ff:ff:ff:ff:ff:ff) ns3::Ipv4Header (tos 0x0 DSCP Default ECN Not-ECT ttl 64 id 5 protocol 17 offset (bytes) 0 flags [none] length: 540 10.0.1.1 > 10.0.1.255) ns3::UdpHeader (length: 520 49153 > 10) Payload (size=512) ns3::EthernetTrailer (fcs=0)
+ 1.04915 /NodeList/1/DeviceList/1/$ns3::CsmaNetDevice/TxQueue/Enqueue ns3::EthernetHeader ( length/type=0x800, source=00:00:00:00:00:0b, destination=ff:ff:ff:ff:ff:ff) ns3::Ipv4Header (tos 0x0 DSCP Default ECN Not-ECT ttl 64 id 5 protocol 17 offset (bytes) 0 flags [none] length: 540 10.0.5.1 > 10.0.5.255) ns3::UdpHeader (length: 520 49153 > 10) Payload (size=512) ns3::EthernetTrailer (fcs=0)
- 1.04915 /NodeList/1/DeviceList/1/$ns3::CsmaNetDevice/TxQueue/Dequeue ns3::EthernetHeader ( length/type=0x800, source=00:00:00:00:00:0b, destination=ff:ff:ff:ff:ff:ff) ns3::Ipv4Header (tos 0x0 DSCP Default ECN Not-ECT ttl 64 id 5 protocol 17 offset (bytes) 0 flags [none] length: 540 10.0.5.1 > 10.0.5.255) ns3::UdpHeader (length: 520 49153 > 10) Payload (size=512) ns3::EthernetTrailer (fcs=0)
r 1.0512 /NodeList/2/DeviceList/1/$ns3::CsmaNetDevice/MacRx ns3::EthernetHeader ( length/type=0x800, source=00:00:00:00:00:03, destination=ff:ff:ff:ff:ff:ff) ns3::Ipv4Header (tos 0x0 DSCP Default ECN Not-ECT ttl 64 id 5 protocol 17 offset (bytes) 0 flags [none] length: 540 10.0.1.1 > 10.0.1.255) ns3::UdpHeader (length: 520 49153 > 10) Payload (size=512) ns3::EthernetTrailer (fcs=0)
r 1.0512 /NodeList/4/DeviceList/1/$ns3::CsmaNetDevice/MacRx ns3::EthernetHeader ( length/type=0x800, source=00:00:00:00:00:0b, destination=ff:ff:ff:ff:ff:ff) ns3::Ipv4Header (tos 0x0 DSCP Default ECN Not-ECT ttl 64 id 5 protocol 17 offset (bytes) 0 flags [none] length: 540 10.0.5.1 > 10.0.5.255) ns3::UdpHeader (length: 520 49153 > 10) Payload (size=512) ns3::EthernetTrailer (fcs=0)
+ 1.05415 /NodeList/0/DeviceList/0/$ns3::CsmaNetDevice/TxQueue/Enqueue ns3::EthernetHeader ( length/type=0x800, source=00:00:00:00:00:01, destination=ff:ff:ff:ff:ff:ff) ns3::Ipv4Header (tos 0x0 DSCP Default ECN Not-ECT ttl 64 id 5 protocol 17 offset (bytes) 0 flags [none] length: 540 10.0.0.1 > 10.0.0.255) ns3::UdpHeader (length: 520 49153 > 9) Payload (size=512) ns3::EthernetTrailer (fcs=0)
- 1.05415 /NodeList/0/DeviceList/0/$ns3::CsmaNetDevice/TxQueue/Dequeue ns3::EthernetHeader ( length/type=0x800, source=00:00:00:00:00:01, destination=ff:ff:ff:ff:ff:ff) ns3::Ipv4Header (tos 0x0 DSCP Default ECN Not-ECT ttl 64 id 5 protocol 17 offset (bytes) 0 flags [none] length: 540 10.0.0.1 > 10.0.0.255) ns3::UdpHeader (length: 520 49153 > 9) Payload (size=512) ns3::EthernetTrailer (fcs=0)
+ 1.05415 /NodeList/0/DeviceList/1/$ns3::CsmaNetDevice/TxQueue/Enqueue ns3::EthernetHeader ( length/type=0x800, source=00:00:00:00:00:0d, destination=ff:ff:ff:ff:ff:ff) ns3::Ipv4Header (tos 0x0 DSCP Default ECN Not-ECT ttl 64 id 5 protocol 17 offset (bytes) 0 flags [none] length: 540 10.0.6.1 > 10.0.6.255) ns3::UdpHeader (length: 520 49153 > 9) Payload (size=512) ns3::EthernetTrailer (fcs=0)
- 1.05415 /NodeList/0/DeviceList/1/$ns3::CsmaNetDevice/TxQueue/Dequeue ns3::EthernetHeader ( length/type=0x800, source=00:00:00:00:00:0d, destination=ff:ff:ff:ff:ff:ff) ns3::Ipv4Header (tos 0x0 DSCP Default ECN Not-ECT ttl 64 id 5 protocol 17 offset (bytes) 0 flags [none] length: 540 10.0.6.1 > 10.0.6.255) ns3::UdpHeader (length: 520 49153 > 9) Payload (size=512) ns3::EthernetTrailer (fcs=0)
r 1.0562 /NodeList/2/DeviceList/0/$ns3::CsmaNetDevice/MacRx ns3::EthernetHeader ( length/type=0x800, source=00:00:00:00:00:01, destination=ff:ff:ff:ff:ff:ff) ns3::Ipv4Header (tos 0x0 DSCP Default ECN Not-ECT ttl 64 id 5 protocol 17 offset (bytes) 0 flags [none] length: 540 10.0.0.1 > 10.0.0.255) ns3::UdpHeader (length: 520 49153 > 9) Payload (size=512) ns3::EthernetTrailer (fcs=0)
r 1.0562 /NodeList/5/DeviceList/1/$ns3::CsmaNetDevice/MacRx ns3::EthernetHeader ( length/type=0x800, source=00:00:00:00:00:0d, destination=ff:ff:ff:ff:ff:ff) ns3::Ipv4Header (tos 0x0 DSCP Default ECN Not-ECT ttl 64 id 5 protocol 17 offset (bytes) 0 flags [none] length: 540 10.0.6.1 > 10.0.6.255) ns3::UdpHeader (length: 520 49153 > 9) Payload (size=512) ns3::EthernetTrailer (fcs=0)
+ 1.05734 /NodeList/1/DeviceList/0/$ns3::CsmaNetDevice/TxQueue/Enqueue ns3::EthernetHeader ( length/type=0x800, source=00:00:00:00:00:03, destination=ff:ff:ff:ff:ff:ff) ns3::Ipv4Header (tos 0x0 DSCP Default ECN Not-ECT ttl 64 id 6 protocol 17 offset (bytes) 0 flags [none] length: 540 10.0.1.1 > 10.0.1.255) ns3::UdpHeader (length: 520 49153 > 10) Payload (size=512) ns3::EthernetTrailer (fcs=0)
- 1.05734 /NodeList/1/DeviceList/0/$ns3::CsmaNetDevice/TxQueue/Dequeue ns3::EthernetHeader ( length/type=0x800, source=00:00:00:00:00:03, destination=ff:ff:ff:ff:ff:ff) ns3::Ipv4Header (tos 0x0 DSCP Default ECN Not-ECT ttl 64 id 6 protocol 17 offset (bytes) 0 flags [none] length: 540 10.0.1.1 > 10.0.1.255) ns3::UdpHeader (length: 520 49153 > 10) Payload (size=512) ns3::EthernetTrailer (fcs=0)
+ 1.05734 /NodeList/1/DeviceList/1/$ns3::CsmaNetDevice/TxQueue/Enqueue ns3::EthernetHeader ( length/type=0x800, source=00:00:00:00:00:0b, destination=ff:ff:ff:ff:ff:ff) ns3::Ipv4Header (tos 0x0 DSCP Default ECN Not-ECT ttl 64 id 6 protocol 17 offset (bytes) 0 flags [none] length: 540 10.0.5.1 > 10.0.5.255) ns3::UdpHeader (length: 520 49153 > 10) Payload (size=512) ns3::EthernetTrailer (fcs=0)
- 1.05734 /NodeList/1/DeviceList/1/$ns3::CsmaNetDevice/TxQueue/Dequeue ns3::EthernetHeader ( length/type=0x800, source=00:00:00:00:00:0b, destination=ff:ff:ff:ff:ff:ff) ns3::Ipv4Header (tos 0x0 DSCP Default ECN Not-ECT ttl 64 id 6 protocol 17 offset (bytes) 0 flags [none] length: 540 10.0.5.1 > 10.0.5.255) ns3::UdpHeader (length: 520 49153 > 10) Payload (size=512) ns3::EthernetTrailer (fcs=0)